- Add audio PARITIAL
  - Fix remaining unimplemented effects (only affects tune6.mod ??? (soundtest 12 !))
- Restore unused music (I think PC order is not so hot)
- P2 minor adjustments (animation timers, button text, etc) PARTIAL
  - beastly mode related texts need editing
- Is the crosshair off-center in the Jaguar version, too?
- Make it harder to skip end screen on accident
- Rethink default controls (?)
  - Maybe add option to use shoulder buttons
- Fix 1-frame glitch on warp stage complete